
FAST Summary File

Predictions were generated on 12-Oct-2022 at 14:28:40 using OpenFAST, compiled as a 64-bit application using single precision at commit v1.1-dirty
  compiled with
    NWTC Subroutine Library
    ElastoDyn
    BeamDyn (unknown version, unknown date) [not called]
    InflowWind
    AeroDyn14 (unknown version, unknown date) [not called]
    AeroDyn
    ServoDyn
    HydroDyn
    SubDyn
    ExtPtfm_MCKF (unknown version, unknown date) [not called]
    MAP (unknown version, unknown date) [not called]
    FEAMooring (unknown version, unknown date) [not called]
    MoorDyn (unknown version, unknown date) [not called]
    OrcaFlexInterface (unknown version, unknown date) [not called]
    IceFloe (unknown version, unknown date) [not called]
    IceDyn (unknown version, unknown date) [not called]


Modeling a fixed-bottom offshore turbine
Description from the FAST input file: 
  Generated with AeroElasticSE FAST driver

Interpolation order for input/output time histories: 2 (quadratic)
Number of correction iterations:  0
Number of rows in Jacobian matrix used for coupling ElastoDyn, SubDyn, HydroDyn, OrcaFlex, ExtPtfm_MCKF, and/or BeamDyn:    624


   Requested Time Steps  
  -------------------------------------------------
  Component          Time Step (s)    Subcycles (-)
  -----------------  ---------------  -------------
  FAST (glue code)    1.000E-02
  InflowWind          1.000E-02              1
  ElastoDyn           1.000E-02              1
  AeroDyn             1.000E-02              1
  ServoDyn            1.000E-02              1
  HydroDyn            1.000E-02              1
  SubDyn              1.000E-02              1
  FAST output files   2.000E-02              2^-1


   Requested Channels in FAST Output File(s)  
  --------------------------------------------
  Number  Name                  Units                 Generated by
  ------  --------------------  --------------------  ------------
       1  Time                  (s)                   OpenFAST
       2  Azimuth               (deg)                 ElastoDyn
       3  BldPitch1             (deg)                 ElastoDyn
       4  BldPitch2             (deg)                 ElastoDyn
       5  BldPitch3             (deg)                 ElastoDyn
       6  GenSpeed              (rpm)                 ElastoDyn
       7  IPDefl1               (m)                   ElastoDyn
       8  LSSGagMya             (kN-m)                ElastoDyn
       9  LSSGagMza             (kN-m)                ElastoDyn
      10  LSSTipMys             (kN-m)                ElastoDyn
      11  LSSTipMzs             (kN-m)                ElastoDyn
      12  LSShftFys             (kN)                  ElastoDyn
      13  LSShftFzs             (kN)                  ElastoDyn
      14  NacYaw                (deg)                 ElastoDyn
      15  NcIMUTAxs             (m/s^2)               ElastoDyn
      16  NcIMUTAys             (m/s^2)               ElastoDyn
      17  NcIMUTAzs             (m/s^2)               ElastoDyn
      18  OoPDefl1              (m)                   ElastoDyn
      19  PtfmHeave             (m)                   ElastoDyn
      20  PtfmPitch             (deg)                 ElastoDyn
      21  PtfmRoll              (deg)                 ElastoDyn
      22  PtfmSurge             (m)                   ElastoDyn
      23  PtfmSway              (m)                   ElastoDyn
      24  PtfmYaw               (deg)                 ElastoDyn
      25  RootFxb1              (kN)                  ElastoDyn
      26  RootFxb2              (kN)                  ElastoDyn
      27  RootFxb3              (kN)                  ElastoDyn
      28  RootFxc1              (kN)                  ElastoDyn
      29  RootFxc2              (kN)                  ElastoDyn
      30  RootFxc3              (kN)                  ElastoDyn
      31  RootFyb1              (kN)                  ElastoDyn
      32  RootFyb2              (kN)                  ElastoDyn
      33  RootFyb3              (kN)                  ElastoDyn
      34  RootFyc1              (kN)                  ElastoDyn
      35  RootFyc2              (kN)                  ElastoDyn
      36  RootFyc3              (kN)                  ElastoDyn
      37  RootFzb1              (kN)                  ElastoDyn
      38  RootFzb2              (kN)                  ElastoDyn
      39  RootFzb3              (kN)                  ElastoDyn
      40  RootFzc1              (kN)                  ElastoDyn
      41  RootFzc2              (kN)                  ElastoDyn
      42  RootFzc3              (kN)                  ElastoDyn
      43  RootMxb1              (kN-m)                ElastoDyn
      44  RootMxb2              (kN-m)                ElastoDyn
      45  RootMxb3              (kN-m)                ElastoDyn
      46  RootMxc1              (kN-m)                ElastoDyn
      47  RootMxc2              (kN-m)                ElastoDyn
      48  RootMxc3              (kN-m)                ElastoDyn
      49  RootMyb1              (kN-m)                ElastoDyn
      50  RootMyb2              (kN-m)                ElastoDyn
      51  RootMyb3              (kN-m)                ElastoDyn
      52  RootMyc1              (kN-m)                ElastoDyn
      53  RootMyc2              (kN-m)                ElastoDyn
      54  RootMyc3              (kN-m)                ElastoDyn
      55  RootMzb1              (kN-m)                ElastoDyn
      56  RootMzb2              (kN-m)                ElastoDyn
      57  RootMzb3              (kN-m)                ElastoDyn
      58  RootMzc1              (kN-m)                ElastoDyn
      59  RootMzc2              (kN-m)                ElastoDyn
      60  RootMzc3              (kN-m)                ElastoDyn
      61  RotSpeed              (rpm)                 ElastoDyn
      62  RotThrust             (kN)                  ElastoDyn
      63  RotTorq               (kN-m)                ElastoDyn
      64  Spn1MLxb1             (kN-m)                ElastoDyn
      65  Spn1MLyb1             (kN-m)                ElastoDyn
      66  Spn2MLxb1             (kN-m)                ElastoDyn
      67  Spn2MLyb1             (kN-m)                ElastoDyn
      68  Spn3MLxb1             (kN-m)                ElastoDyn
      69  Spn3MLyb1             (kN-m)                ElastoDyn
      70  Spn4MLxb1             INVALID               ElastoDyn
      71  Spn4MLyb1             INVALID               ElastoDyn
      72  Spn5MLxb1             INVALID               ElastoDyn
      73  Spn5MLyb1             INVALID               ElastoDyn
      74  Spn6MLxb1             INVALID               ElastoDyn
      75  Spn6MLyb1             INVALID               ElastoDyn
      76  Spn7MLxb1             INVALID               ElastoDyn
      77  Spn7MLyb1             INVALID               ElastoDyn
      78  Spn8MLxb1             INVALID               ElastoDyn
      79  Spn8MLyb1             INVALID               ElastoDyn
      80  Spn9MLxb1             INVALID               ElastoDyn
      81  Spn9MLyb1             INVALID               ElastoDyn
      82  TTDspTwst             (deg)                 ElastoDyn
      83  TipDxb1               (m)                   ElastoDyn
      84  TipDxb2               (m)                   ElastoDyn
      85  TipDxb3               (m)                   ElastoDyn
      86  TipDxc1               (m)                   ElastoDyn
      87  TipDxc2               (m)                   ElastoDyn
      88  TipDxc3               (m)                   ElastoDyn
      89  TipDyb1               (m)                   ElastoDyn
      90  TipDyb2               (m)                   ElastoDyn
      91  TipDyb3               (m)                   ElastoDyn
      92  TipDyc1               (m)                   ElastoDyn
      93  TipDyc2               (m)                   ElastoDyn
      94  TipDyc3               (m)                   ElastoDyn
      95  TipDzb1               (m)                   ElastoDyn
      96  TipDzb2               (m)                   ElastoDyn
      97  TipDzb3               (m)                   ElastoDyn
      98  TipDzc1               (m)                   ElastoDyn
      99  TipDzc2               (m)                   ElastoDyn
     100  TipDzc3               (m)                   ElastoDyn
     101  TwHt1TPxi             (m)                   ElastoDyn
     102  TwHt1TPyi             (m)                   ElastoDyn
     103  TwrBsFxt              (kN)                  ElastoDyn
     104  TwrBsFyt              (kN)                  ElastoDyn
     105  TwrBsFzt              (kN)                  ElastoDyn
     106  TwrBsMxt              (kN-m)                ElastoDyn
     107  TwrBsMyt              (kN-m)                ElastoDyn
     108  TwrBsMzt              (kN-m)                ElastoDyn
     109  TwstDefl1             (deg)                 ElastoDyn
     110  YawBrFxp              (kN)                  ElastoDyn
     111  YawBrFyp              (kN)                  ElastoDyn
     112  YawBrFzp              (kN)                  ElastoDyn
     113  YawBrMxp              (kN-m)                ElastoDyn
     114  YawBrMyp              (kN-m)                ElastoDyn
     115  YawBrMzp              (kN-m)                ElastoDyn
     116  YawBrTDxt             (m)                   ElastoDyn
     117  YawBrTDyt             (m)                   ElastoDyn
     118  RtAeroCp              (-)                   AeroDyn
     119  RtAeroCt              (-)                   AeroDyn
     120  RtAeroFxh             (N)                   AeroDyn
     121  RtAeroFyh             (N)                   AeroDyn
     122  RtAeroFzh             (N)                   AeroDyn
     123  RtAeroMxh             (N-m)                 AeroDyn
     124  RtAeroMyh             (N-m)                 AeroDyn
     125  RtAeroMzh             (N-m)                 AeroDyn
     126  RtArea                (m^2)                 AeroDyn
     127  RtSpeed               (rpm)                 AeroDyn
     128  RtTSR                 (-)                   AeroDyn
     129  RtVAvgxh              (m/s)                 AeroDyn
     130  GenPwr                (kW)                  ServoDyn
     131  GenTq                 (kN-m)                ServoDyn
     132  Wave1Elev             (m)                   HydroDyn
     133  M1N1MKxe              (N*m)                 SubDyn
     134  M1N1MKye              (N*m)                 SubDyn
     135  M2N1MKxe              (N*m)                 SubDyn
     136  M2N1MKye              (N*m)                 SubDyn
